Created on Tue Apr 16 10:26:43 2019 

         190 atoms

          12 atom types
           0.000000  21.633600 xlo xhi
           0.000000  18.561517 ylo yhi
           0.000000   6.674486 zlo zhi
         -11.056105  -2.863964  -3.956315 xy xz yz

Masses

    1    12.010700000 # C_R
    2    12.010700000 # C_3
    3    15.999400000 # O_3
    4     1.007940000 # H_
    5    10.811000000 # B_3
    6    12.010700000 # C_2
    7     1.007940000 # H_
    8    12.010700000 # C_3
    9    12.010700000 # C_R
   10    15.999400000 # O_3
   11    10.811000000 # B_3
   12    12.010700000 # C_2

Pair Coeffs

    1        0.105000        3.430851 # C_R C_R
    2        0.105000        3.430851 # C_3 C_3
    3        0.060000        3.118146 # O_3 O_3
    4        0.044000        2.571134 # H_ H_
    5        0.180000        3.637539 # B_3 B_3
    6        0.105000        3.430851 # C_2 C_2
    7        0.044000        2.571134 # H_ H_
    8        0.105000        3.430851 # C_3 C_3
    9        0.105000        3.430851 # C_R C_R
   10        0.060000        3.118146 # O_3 O_3
   11        0.180000        3.637539 # B_3 B_3
   12        0.105000        3.430851 # C_2 C_2

Atoms

       1        1    -0.04481   11.50540   -0.77407    1.71768
       2        1     0.10246   10.68031    0.35153    1.67723
       3        1     0.10305   10.76432   -1.95344    1.67503
       4        2    -0.12004   12.99893   -0.71316    1.83068
       5        3    -0.33138   11.11149    1.67032    1.69572
       6        1     0.10583    9.27827    0.31685    1.60735
       7        1     0.09924    9.36963   -1.99520    1.59173
       8        3    -0.33854   11.26020   -3.24760    1.72429
       9        4     0.10426   13.40957   -1.71918    1.67877
      10        4     0.09167   13.37422   -0.09331    1.00384
      11        2    -0.37822   13.46026   -0.11250    3.16651
      12        5     0.57624    9.94731    2.44525    1.63091
      13        1    -0.05079    8.53383   -0.87375    1.55736
      14        3    -0.33213    8.80918    1.62810    1.58219
      15        3    -0.33768    8.95402   -3.32027    1.57444
      16        5     0.57868   10.12984   -4.07867    1.67429
      17        7     0.12030   15.00669    0.75202    0.48677
      18        4     0.12147   13.12630   -0.71427    4.02078
      19        4     0.12900   13.04625    0.89457    3.29566
      20        4     0.11749   14.55438   -0.03498    3.20609
      21        1    -0.23565    9.94652    3.98476    1.60708
      22        2    -0.10769    7.03966   -1.06070    1.47506
      23        1    -0.23730   10.17536   -5.61290    1.71020
      24        7     0.09356   14.93265    1.62429   -2.47283
      25        1     0.00286    8.74828    4.71989    1.61476
      26        4     0.09602    6.81650   -1.54301    0.50853
      27        4     0.09556    6.77204   -1.81339    2.23415
      28        2    -0.36767    6.17471    0.18887    1.65447
      29        1     0.00281   11.40441   -6.29266    1.75098
      30        7     0.10618   15.04251   -0.03924   -1.91317
      31        8    -0.12010   14.63085    0.94645   -1.66121
      32        1    -0.24936    8.75028    6.12674    1.64940
      33        4     0.10522    7.79705    4.18764    1.61709
      34        4     0.12219    6.33891    0.92172    0.85714
      35        4     0.12167    6.38860    0.68695    2.60786
      36        4     0.11576    5.11292   -0.09006    1.64813
      37        1    -0.24395   11.46484   -7.69667    1.71374
      38        4     0.10489   12.33103   -5.72125    1.78402
      39        9    -0.04922   13.13117    0.86865   -1.67963
      40        8    -0.37256   15.18977    1.46491   -0.32698
      41        5     0.58280    7.43177    6.91038    1.66822
      42        1     0.00004    9.98606    6.79730    1.67550
      43        5     0.58276   12.81561   -8.42995    1.70326
      44        9     0.10630   12.30558    1.99388   -1.70506
      45        9     0.10084   12.38687   -0.31353   -1.68090
      46        7     0.12790   14.71804    2.41726   -0.05166
      47        7     0.11775   16.27229    1.63308   -0.39306
      48        3    -0.33302    6.16652    6.31282    1.58879
      49        3    -0.33117    7.32294    8.30795    1.76173
      50        1    -0.23009   11.20360    6.09618    1.64740
      51        4     0.10400    9.99826    7.88550    1.70660
      52        3    -0.33733   14.07679   -7.81714    1.77795
      53        3    -0.32970   12.94007   -9.82059    1.61216
      54       10    -0.33563   12.73183    3.31588   -1.68604
      55        9     0.10916   10.90188    1.95827   -1.77682
      56        9     0.09783   10.98834   -0.35103   -1.75479
      57       10    -0.33319   12.87707   -1.61179   -1.60688
      58        1     0.09821    5.26165    7.36376    1.63391
      59        1     0.10566    5.95625    8.57246    1.74324
      60        5     0.57457   12.54787    6.84383    1.65367
      61        1    -0.01131   11.16315    4.69144    1.61109
      62        1     0.10084   14.99911   -8.85897    1.74064
      63        1     0.10934   14.30505  -10.07835    1.62991
      64       11     0.57096   11.56463    4.08775   -1.75819
      65        9    -0.05176   10.15575    0.77368   -1.81346
      66       10    -0.33310   10.42887    3.26695   -1.81299
      67       10    -0.33686   10.57089   -1.67430   -1.75726
      68       11     0.58218   11.74429   -2.43713   -1.65621
      69        1    -0.05393    3.87163    7.23499    1.55836
      70        1    -0.05349    5.33588    9.82582    1.80291
      71        3    -0.34026   12.68451    8.24191    1.63265
      72        3    -0.33440   13.80258    6.21860    1.68731
      73        4     0.10836   12.09997    4.13490    1.58646
      74        9    -0.23549   11.52183    5.62659   -1.74551
      75        8    -0.10636    8.65827    0.62372   -1.93186
      76        9    -0.23694   11.74299   -3.97236   -1.60421
      77        2    -0.11057    3.23365    5.87942    1.39777
      78        2    -0.11633    6.06959   11.13177    1.95109
      79        1     0.10034   14.05529    8.47611    1.65527
      80        1     0.10387   14.72830    7.25321    1.69265
      81        9     0.00282   10.29105    6.30869   -1.75265
      82        7     0.09409    8.43301    0.30812   -2.96514
      83        7     0.09516    8.37065   -0.23214   -1.30152
      84        8    -0.37828    7.81047    1.84891   -1.56884
      85        9     0.00201   12.92864   -4.72603   -1.55649
      86        4     0.09793    3.87421    5.30120    0.71517
      87        4     0.08559    3.30435    5.35249    2.36250
      88        2    -0.36874    1.78438    5.86198    0.90079
      89        4     0.08866    6.72927   11.26085    1.08073
      90        4     0.10466    5.33478   11.94623    1.90603
      91        2    -0.37278    6.90810   11.22041    3.23886
      92        1    -0.04353   14.68310    9.73003    1.65294
      93        1    -0.05031   16.12056    7.11846    1.74338
      94        9    -0.24445   10.22356    7.71226   -1.70246
      95        7     0.10275    9.36391    5.73776   -1.77461
      96        7     0.12573    8.01064    2.70248   -2.22474
      97        7     0.12283    7.99319    2.16978   -0.53663
      98        7     0.11476    6.74628    1.59229   -1.65133
      99        9    -0.24715   12.90946   -6.13330   -1.57852
     100        7     0.10536   13.88698   -4.20940   -1.53280
     101        4     0.12483    1.08821    6.23300    1.66208
     102        4     0.11523    1.49265    4.83414    0.64729
     103        4     0.12276    1.65490    6.48311    0.00667
     104        4     0.12642    7.70109   10.46195    3.25208
     105        4     0.11976    6.28848   11.06858    4.13258
     106        4     0.11796    7.38804   12.20447    3.32102
     107        1     0.10772    5.49773   -8.96241    1.70533
     108        2    -0.11795   13.88314   11.00315    1.53053
     109        1     0.10160    6.17617  -10.19475    1.73797
     110        2    -0.11580   16.80320    5.78163    1.85270
     111       11     0.58294    8.87191    8.44662   -1.71354
     112        9     0.00218   11.42687    8.43715   -1.64026
     113       11     0.58233   14.23481   -6.91437   -1.58759
     114        3    -0.33494    6.43504   -7.93845    1.69732
     115        4     0.09804   13.45016   11.01370    0.51694
     116        4     0.09732   13.01846   10.92980    2.20759
     117        2    -0.37202   14.64011   12.31061    1.78169
     118        3    -0.33735    7.54704   -9.95959    1.73016
     119        4     0.10408   17.86372    5.93867    2.08598
     120        4     0.09377   16.36045    5.26800    2.71892
     121        6    -0.37666   16.63647    4.87396    0.62240
     122       10    -0.33646    7.61275    7.83568   -1.82707
     123       10    -0.33034    8.74177    9.83573   -1.60294
     124        9    -0.23582   12.67610    7.79231   -1.65714
     125        7     0.10638   11.39006    9.52458   -1.58906
     126       10    -0.33362   15.49898   -6.31352   -1.49242
     127       10    -0.33180   14.35385   -8.30515   -1.72449
     128        5     0.57498    7.68640   -8.56304    1.69826
     129        4     0.12337   15.43989   12.45788    1.04723
     130        4     0.12539   15.10934   12.32490    2.77372
     131        4     0.11597   13.95017   13.16192    1.71234
     132        4     0.13203   15.58628    4.82672    0.30723
     133        9     0.09992    6.68950    8.87631   -1.77301
     134        9     0.10787    7.37613   10.09119   -1.62777
     135       11     0.57641   13.99042    8.59234   -1.66408
     136        9    -0.01216   12.70477    6.38606   -1.70406
     137        9     0.10133   16.41175   -7.35612   -1.58386
     138        9     0.10530   15.72233   -8.56776   -1.73270
     139        1    -0.23105    9.00987   -7.77464    1.67243
     140        4     0.11537   16.96239    3.85002    0.85520
     141        9    -0.05314    5.29609    8.74847   -1.84356
     142        9    -0.05031    6.74727   11.33374   -1.51417
     143       10    -0.33871   14.10534    9.99210   -1.70453
     144       10    -0.33348   15.25367    7.98658   -1.64513
     145        7     0.10787   13.66872    5.87612   -1.71367
     146        1     0.00160   10.25890   -8.41992    1.67163
     147        8    -0.11309    4.62040    7.41348   -2.01476
     148        8    -0.11867    7.41359   12.66857   -1.30072
     149        9     0.09564   15.47464   10.24883   -1.70740
     150        9     0.10716   16.16151    9.03400   -1.66015
     151        4     0.10561   10.29452   -9.50852    1.64746
     152        7     0.10081    5.33392    6.74183   -2.51094
     153        7     0.08908    4.45357    6.98231   -1.01619
     154        8    -0.36766    3.29631    7.45054   -2.78907
     155        7     0.08640    7.45606   13.19468   -2.26846
     156        7     0.10056    6.74161   13.27027   -0.67245
     157       12    -0.37249    8.81539   12.61267   -0.67753
     158        9    -0.04304   16.08314   11.51708   -1.70980
     159        9    -0.04807   17.55303    8.92458   -1.58546
     160        7     0.11741    3.41375    7.96948   -3.74846
     161        7     0.12515    2.51738    7.97709   -2.22627
     162        7     0.11485    2.94424    6.43090   -2.99157
     163        7     0.12729    9.55220   12.21470   -1.38395
     164        7     0.11473    9.14219   13.61702   -0.37657
     165        9     0.10643    6.90399   -7.15603   -1.67122
     166        8    -0.11763   15.25646   12.77930   -1.76153
     167        9     0.10085    7.58281   -8.38308   -1.61683
     168        8    -0.11600   18.30668    7.63914   -1.41659
     169       10    -0.33592    7.84932   -6.13398   -1.67476
     170        7     0.09843   14.75716   12.81240   -2.74208
     171        7     0.09550   14.43870   12.67330   -1.03221
     172        8    -0.36946   16.00370   14.09507   -1.52252
     173       10    -0.33936    8.94909   -8.16261   -1.59734
     174        7     0.10499   19.34489    7.87506   -1.15262
     175        7     0.09392   17.87287    7.12068   -0.55038
     176        8    -0.37243   18.25442    6.71253   -2.63749
     177       11     0.57381    9.09713   -6.77215   -1.64152
     178        7     0.12438   16.76424   14.27033   -2.29229
     179        7     0.12388   16.52070   14.10632   -0.55385
     180        7     0.11486   15.29602   14.93419   -1.54247
     181        7     0.11901   18.85010    7.10846   -3.47047
     182        7     0.12790   17.22339    6.58577   -2.98823
     183        9    -0.22970   10.45659   -6.05912   -1.64573
     184        7     0.11539   18.64832    5.71878   -2.38266
     185        9     0.00066   11.66228   -6.78413   -1.62444
     186        7     0.10374   11.62511   -7.87329   -1.62731
     187        1    -0.01358    8.98999   -6.36750    1.67369
     188        9    -0.01224   10.51694   -4.65717   -1.64573
     189        4     0.11037    8.03294   -5.84741    1.64740
     190        7     0.10975    9.59121   -4.08356   -1.67870
